<?xml version="1.0"?>
<VTKFile type="UnstructuredGrid"  version="0.1"  >
<UnstructuredGrid>
<Piece  NumberOfPoints="8330" NumberOfCells="16256">
<Points>
<DataArray  type="Float64"  NumberOfComponents="3"  format="ascii">-0.999877856940653 0.01562917783400803 0  -0.999877856940653 -0.01562917783400779 0  -0.9989008914857115 -0.04687226246994006 0  -0.9969479151539236 -0.07806954893071458 0  -0.994020836168776 -0.1091905548219597 0  -0.9901225145346509 -0.140204872281886 0  -0.985256759242359 -0.1710821976923499 0  -0.979428324547432 -0.2017923612880579 0  -0.9726429053248131 -0.2323053566349829 0  -0.9649071315044797 -0.2625913699491981 0  -0.9562285615934407 -0.2926208092274699 0  -0.9466156752904342 -0.3223643331611536 0  -0.9360778652005416 -0.3517928798051443 0  -0.9246254276578175 -0.3808776949738565 0  -0.912269552664897 -0.4095903603365061 0  -0.8990223129594145 -0.4379028211842264 0  -0.8848966522179168 -0.4657874138418977 0  -0.8699063724087903 -0.4932168926979072 0  -0.8540661203065708 -0.520164456825418 0  -0.8373913731808008 -0.5466037761691488 0  -0.8198984236734247 -0.5725090172720717 0  -0.8016043638794972 -0.5978548685168891 0  -0.7825270686467568 -0.6226165648576288 0  -0.7626851781103819 -0.6467699120171987 0  -0.7420980794800013 -0.6702913101272414 0  -0.7207858880967426 -0.6931577767872117 0  -0.6987694277788415 -0.7153469695201277 0  -0.6760702104750047 -0.7368372076030654 0  -0.6527104152454097 -0.7576074932510666 0  -0.6287128665908849 -0.777637532133752 0  -0.6041010121514363 -0.7969077532046042 0  -0.5788988997959114 -0.8153993278235415 0  -0.5531311541251993 -0.8330941881540916 0  -0.5268229524119011 -0.8499750448172039 0  -0.5000000000000004 -0.8660254037844384 0  -0.4726885051885656 -0.8812295824940283 0  -0.4449151536240167 -0.895572725174074 0  -0.4167070822259868 -0.9090408173578921 0  -0.3880918526722498 -0.9216206995773374 0  -0.3590974244686246 -0.933300080220719 0  -0.3297521276301665 -0.9440675475427478 0  -0.3000846350003414 -0.9539125808147788 0  -0.2701239342352219 -0.9628255606044562 0  -0.2398992994800976 -0.9707977781747126 0  -0.2094402627661449 -0.977821443992945 0  -0.1787765851551298 -0.9838896953420493 0  -0.1479382276603303 -0.9889966030258751 0  -0.1169553219720827 -0.9931371771625541 0  -0.08585814101656615 -0.9963073720600383 0  -0.05467706937658603 -0.9985040901690829 0  -0.02344257360326047 -0.9997251851098159 0  0.007814827552383885 -0.9999694637689326 0  0.03906459295881858 -0.9992366874654682 0  0.07027618894529319 -0.9975275721840101 0  0.101419119135812 -0.9948437878751196 0  0.1324629542466875 -0.991187956823649 0  0.1633773618185298 -0.9865636510865465 0  0.1941321358536273 -0.9809753890026542 0  0.2246972263297716 -0.9744286307779074 0  0.2550427685616763 -0.9669297731502506 0  0.2851391123813071 -0.9584861431394824 0  0.3149568511086103 -0.9491059908881351 0  0.3444668502843322 -0.9387984816003867 0  0.3736402761368591 -0.927573686586878 0  0.4024486237552531 -0.9154425734241896 0  0.4308637449409699 -0.9024169952385886 0  0.4588578757110361 -0.8885096791245188 0  0.4864036634258114 -0.8737342137091519 0  0.5134741935148417 -0.8581050358751444 0  0.5400430157746755 -0.841637416654579 0  0.566084170212953 -0.8243474463078735 0  0.5915722124135223 -0.8062520186022298 0  0.6164822383977913 -0.7873688143049919 0  0.6407899089580255 -0.7677162839080369 0  0.6644714734388212 -0.7473136296000776 0  0.6875037929435054 -0.7261807865044996 0  0.7098643629428029 -0.7043384032010527 0  0.7315313352636693 -0.6818078215504374 0  0.7524835394368069 -0.6586110558415 0  0.7727005033820112 -0.6347707712814024 0  0.7921624734111292 -0.6103102618497922 0  0.810850433529085 -0.5852534275386133 0  0.8287461240141216 -0.5596247509997839 0  0.8458320592590974 -0.5334492736235703 0  0.862091544856406 -0.5067525710710259 0  0.8775086939098309 -0.4795607282843985 0  0.8920684425573863 -0.4519003139999344 0  0.9057565646899907 -0.423798354787966 0  0.91855968585158 -0.3952823086456649 0  0.9304652963070865 -0.3663800381682464 0  0.9414617632655112 -0.3371197833248509 0  0.9515383422461453 -0.3075301338657036 0  0.9606851875768402 -0.2776400013875007 0  0.9688933620140637 -0.2474785910843287 0  0.9761548454753451 -0.2170753732117144 0  0.982462542875576 -0.1864600542916819 0  0.9878102910595093 -0.1556625480869676 0  0.9921928648236853 -0.1247129463727333 0  0.9956059820218981 -0.09364148953435038 0  0.998046307749216 -0.06247853701998218 0  0.9995114576004659 -0.03125453767682462 0  1 0 0  0.9995114576004659 0.03125453767682429 0  0.998046307749216 0.06247853701998265 0  0.9956059820218981 0.09364148953435077 0  0.9921928648236853 0.1247129463727328 0  0.9878102910595095 0.155662548086967 0  0.9824625428755761 0.1864600542916812 0  0.9761548454753453 0.2170753732117136 0  0.9688933620140637 0.2474785910843287 0  0.9606851875768402 0.2776400013875006 0  0.9515383422461454 0.3075301338657034 0  0.9414617632655113 0.3371197833248507 0  0.9304652963070866 0.3663800381682462 0  0.9185596858515798 0.3952823086456654 0  0.9057565646899906 0.4237983547879663 0  0.8920684425573865 0.4519003139999338 0  0.8775086939098312 0.4795607282843979 0  0.8620915448564065 0.5067525710710252 0  0.8458320592590974 0.5334492736235703 0  0.8287461240141217 0.5596247509997838 0  0.810850433529085 0.5852534275386132 0  0.7921624734111293 0.6103102618497921 0  0.7727005033820115 0.6347707712814021 0  0.7524835394368066 0.6586110558415004 0  0.731531335263669 0.6818078215504377 0  0.7098643629428033 0.7043384032010522 0  0.6875037929435059 0.7261807865044991 0  0.6644714734388218 0.747313629600077 0  0.6407899089580261 0.7677162839080363 0  0.6164822383977913 0.7873688143049919 0  0.5915722124135225 0.8062520186022297 0  0.5660841702129533 0.8243474463078734 0  0.5400430157746758 0.8416374166545789 0  0.5134741935148419 0.8581050358751443 0  0.4864036634258112 0.8737342137091521 0  0.4588578757110357 0.8885096791245191 0  0.4308637449409705 0.9024169952385883 0  0.4024486237552537 0.9154425734241893 0  0.3736402761368599 0.9275736865868777 0  0.344466850284333 0.9387984816003864 0  0.3149568511086103 0.9491059908881351 0  0.2851391123813073 0.9584861431394823 0  0.2550427685616765 0.9669297731502506 0  0.2246972263297718 0.9744286307779073 0  0.1941321358536277 0.9809753890026541 0  0.1633773618185302 0.9865636510865465 0  0.1324629542466882 0.9911879568236489 0  0.1014191191358116 0.9948437878751196 0  0.07027618894529299 0.9975275721840101 0  0.03906459295881949 0.9992366874654682 0  0.007814827552383908 0.9999694637689326 0  -0.02344257360326044 0.9997251851098159 0  -0.05467706937658601 0.9985040901690829 0  -0.08585814101656591 0.9963073720600383 0  -0.1169553219720823 0.9931371771625542 0  -0.14793822766033 0.9889966030258751 0  -0.1787765851551293 0.9838896953420494 0  -0.2094402627661442 0.9778214439929452 0  -0.2398992994800977 0.9707977781747126 0  -0.2701239342352221 0.9628255606044562 0  -0.3000846350003405 0.953912580814779 0  -0.3297521276301665 0.9440675475427478 0  -0.3590974244686244 0.9333000802207191 0  -0.3880918526722498 0.9216206995773374 0  -0.4167070822259866 0.9090408173578922 0  -0.4449151536240162 0.8955727251740744 0  -0.4726885051885654 0.8812295824940284 0  -0.4999999999999998 0.8660254037844388 0  -0.5268229524119005 0.8499750448172043 0  -0.5531311541251993 0.8330941881540916 0  -0.5788988997959115 0.8153993278235415 0  -0.6041010121514356 0.7969077532046046 0  -0.6287128665908847 0.7776375321337522 0  -0.6527104152454094 0.7576074932510668 0  -0.6760702104750045 0.7368372076030656 0  -0.6987694277788417 0.7153469695201276 0  -0.7207858880967422 0.6931577767872122 0  -0.7420980794800012 0.6702913101272416 0  -0.7626851781103818 0.6467699120171988 0  -0.7825270686467566 0.6226165648576291 0  -0.8016043638794973 0.5978548685168888 0  -0.8198984236734244 0.5725090172720723 0  -0.8373913731808004 0.5466037761691493 0  -0.8540661203065709 0.5201644568254178 0  -0.8699063724087902 0.4932168926979075 0  -0.8848966522179167 0.4657874138418979 0  -0.8990223129594146 0.4379028211842262 0  -0.9122695526648966 0.4095903603365067 0  -0.9246254276578173 0.3808776949738572 0  -0.9360778652005417 0.3517928798051441 0  -0.9466156752904341 0.3223643331611538 0  -0.9562285615934408 0.2926208092274696 0  -0.9649071315044796 0.2625913699491987 0  -0.972642905324813 0.2323053566349835 0  -0.9794283245474321 0.2017923612880577 0  -0.9852567592423589 0.1710821976923501 0  -0.9901225145346509 0.1402048722818858 0  -0.994020836168776 0.1091905548219599 0  -0.9969479151539234 0.07806954893071527 0  -0.9989008914857115 0.04687226246993987 0  0 -1.110223024625157e-16 0  0.2224847517802496 0.4478410632646048 0  -0.3762877306530188 0.3293457552188769 0  0.4995114576004658 0.02343899414542408 0  -0.3437938885090808 -0.3631347476412812 0  0.2500305394950237 -0.4330655978492388 0  -0.5910825982481791 -0.01848304308728406 0  -0.1205694983025768 0.6092536404606523 0  -0.08356208279008798 -0.6252746707912535 0  0.5743244451670773 -0.3138697668836511 0  0.5520526480997421 0.3603500964540577 0  -0.06677303979652388 0.3033428066504551 0  -0.03647984413154998 -0.3097720463955049 0  -0.2970873745561939 0.04020154252218244 0  -0.6322152278962743 -0.3202649554364072 0  -0.6590452866330614 0.2637215678282478 0  0.136614205795081 0.71059545494886 0  0.1820428175971504 -0.7006595228589965 0  -0.4118661396500117 0.5997708791493779 0  -0.355660862682262 -0.6351540923831073 0  0.2568934265547184 -0.1403929095917472 0  0.7303101369593297 -0.1023222011141449 0  0.480517081826453 -0.5593979469567156 0  0.4379912803458429 0.5951614090488669 0  0.7211050798944474 0.1614339748331999 0  0.2428668023182484 0.1585303067417896 0  -0.2184715887138773 -0.1732746610886907 0  -0.7684056306611182 -0.1458345222930807 0  -0.4653545072898446 -0.189313807999201 0  -0.7835704881280359 0.07369854037483542 0  -0.5103648636982135 -0.4921365326710684 0  -0.5518453856321546 0.4438015532546613 0  -0.4851249279863067 0.1563204538619729 0  -0.04592
[...]
<PointData  Scalars="f_131"> 
<DataArray  type="Float64"  Name="f_131"  format="ascii">0.0000000000000000e+00  0.0000000000000000e+00  0.0000000000000000e+00  0.0000000000000000e+00  0.0000000000000000e+00  0.0000000000000000e+00  0.0000000000000000e+00  0.0000000000000000e+00  0.0000000000000000e+00  0.0000000000000000e+00  0.0000000000000000e+00  0.0000000000000000e+00  0.0000000000000000e+00  0.0000000000000000e+00  0.0000000000000000e+00  0.0000000000000000e+00  0.0000000000000000e+00  0.0000000000000000e+00  0.0000000000000000e+00  0.0000000000000000e+00  0.0000000000000000e+00  0.0000000000000000e+00  0.0000000000000000e+00  0.0000000000000000e+00  0.0000000000000000e+00  0.0000000000000000e+00  0.0000000000000000e+00  0.0000000000000000e+00  0.0000000000000000e+00  0.0000000000000000e+00  0.0000000000000000e+00  0.0000000000000000e+00  0.0000000000000000e+00  0.0000000000000000e+00  0.0000000000000000e+00  0.0000000000000000e+00  0.0000000000000000e+00  0.0000000000000000e+00  0.0000000000000000e+00  0.0000000000000000e+00  0.0000000000000000e+00  0.0000000000000000e+00  0.0000000000000000e+00  0.0000000000000000e+00  0.0000000000000000e+00  0.0000000000000000e+00  0.0000000000000000e+00  0.0000000000000000e+00  0.0000000000000000e+00  0.0000000000000000e+00  0.0000000000000000e+00  0.0000000000000000e+00  0.0000000000000000e+00  0.0000000000000000e+00  0.0000000000000000e+00  0.0000000000000000e+00  0.0000000000000000e+00  0.0000000000000000e+00  0.0000000000000000e+00  0.0000000000000000e+00  0.0000000000000000e+00  0.0000000000000000e+00  0.0000000000000000e+00  0.0000000000000000e+00  0.0000000000000000e+00  0.0000000000000000e+00  0.0000000000000000e+00  0.0000000000000000e+00  0.0000000000000000e+00  0.0000000000000000e+00  0.0000000000000000e+00  0.0000000000000000e+00  0.0000000000000000e+00  0.0000000000000000e+00  0.0000000000000000e+00  0.0000000000000000e+00  0.0000000000000000e+00  0.0000000000000000e+00  0.0000000000000000e+00  0.0000000000000000e+00  0.0000000000000000e+00  0.0000000000000000e+00  0.0000000000000000e+00  0.0000000000000000e+00  0.0000000000000000e+00  0.0000000000000000e+00  0.0000000000000000e+00  0.0000000000000000e+00  0.0000000000000000e+00  0.0000000000000000e+00  0.0000000000000000e+00  0.0000000000000000e+00  0.0000000000000000e+00  0.0000000000000000e+00  0.0000000000000000e+00  0.0000000000000000e+00  0.0000000000000000e+00  0.0000000000000000e+00  0.0000000000000000e+00  0.0000000000000000e+00  0.0000000000000000e+00  0.0000000000000000e+00  0.0000000000000000e+00  0.0000000000000000e+00  0.0000000000000000e+00  0.0000000000000000e+00  0.0000000000000000e+00  0.0000000000000000e+00  0.0000000000000000e+00  0.0000000000000000e+00  0.0000000000000000e+00  0.0000000000000000e+00  0.0000000000000000e+00  0.0000000000000000e+00  0.0000000000000000e+00  0.0000000000000000e+00  0.0000000000000000e+00  0.0000000000000000e+00  0.0000000000000000e+00  0.0000000000000000e+00  0.0000000000000000e+00  0.0000000000000000e+00  0.0000000000000000e+00  0.0000000000000000e+00  0.0000000000000000e+00  0.0000000000000000e+00  0.0000000000000000e+00  0.0000000000000000e+00  0.0000000000000000e+00  0.0000000000000000e+00  0.0000000000000000e+00  0.0000000000000000e+00  0.0000000000000000e+00  0.0000000000000000e+00  0.0000000000000000e+00  0.0000000000000000e+00  0.0000000000000000e+00  0.0000000000000000e+00  0.0000000000000000e+00  0.0000000000000000e+00  0.0000000000000000e+00  0.0000000000000000e+00  0.0000000000000000e+00  0.0000000000000000e+00  0.0000000000000000e+00  0.0000000000000000e+00  0.0000000000000000e+00  0.0000000000000000e+00  0.0000000000000000e+00  0.0000000000000000e+00  0.0000000000000000e+00  0.0000000000000000e+00  0.0000000000000000e+00  0.0000000000000000e+00  0.0000000000000000e+00  0.0000000000000000e+00  0.0000000000000000e+00  0.0000000000000000e+00  0.0000000000000000e+00  0.0000000000000000e+00  0.0000000000000000e+00  0.0000000000000000e+00  0.0000000000000000e+00  0.0000000000000000e+00  0.0000000000000000e+00  0.0000000000000000e+00  0.0000000000000000e+00  0.0000000000000000e+00  0.0000000000000000e+00  0.0000000000000000e+00  0.0000000000000000e+00  0.0000000000000000e+00  0.0000000000000000e+00  0.0000000000000000e+00  0.0000000000000000e+00  0.0000000000000000e+00  0.0000000000000000e+00  0.0000000000000000e+00  0.0000000000000000e+00  0.0000000000000000e+00  0.0000000000000000e+00  0.0000000000000000e+00  0.0000000000000000e+00  0.0000000000000000e+00  0.0000000000000000e+00  0.0000000000000000e+00  0.0000000000000000e+00  0.0000000000000000e+00  0.0000000000000000e+00  0.0000000000000000e+00  0.0000000000000000e+00  0.0000000000000000e+00  0.0000000000000000e+00  0.0000000000000000e+00  0.0000000000000000e+00  0.0000000000000000e+00  0.0000000000000000e+00  0.0000000000000000e+00  0.0000000000000000e+00  0.0000000000000000e+00  0.0000000000000000e+00  1.5959255227057774e-02  3.1666499647266089e-02  1.8334154858219407e-02  9.3945731306356237e-03  5.8995656773803366e-03  5.5302290066312184e-03  7.0318080477282090e-03  4.8115862994074284e-02  3.5532793015475533e-03  4.2653443290744221e-03  1.0818799958271303e-02  3.0948993884615382e-02  8.2599515598019337e-03  1.3999316314491351e-02  3.5540334064938527e-03  7.1442391974367962e-03  3.6460323358398328e-02  2.5397410401784941e-03  1.5945221405778916e-02  2.6126969233938044e-03  1.0453689865680469e-02  3.9086913373470727e-03  2.6555603659841743e-03  1.4399984186502195e-02  5.3421536425037591e-03  1.8691984584153849e-02  1.0141793201123558e-02  3.0631117596608441e-03  7.0446054117513993e-03  3.7740592122656059e-03  3.0930542333172661e-03  1.0589504081925842e-02  1.1560214236502938e-02  2.9335433096750047e-02  1.9907535917993175e-02  1.6879374036072943e-03  1.7142101680439638e-03  4.6910314683398131e-03  5.0886745171772378e-02  2.9005142431039615e-02  4.6893041597391655e-03  1.3962613309129573e-02  7.6005600717625734e-03  1.9860733778444490e-03  2.3053754864610413e-03  6.7300895542472695e-03  4.7397949972766600e-03  2.1081583098644281e-02  4.8628381537954447e-03  2.2844546292611328e-02  1.8892965890731972e-02  8.4386789622271936e-03  1.5816967174583134e-02  1.6565751778170837e-03  4.7836071836543231e-03  1.7472711429579913e-03  2.7536599359482584e-02  3.3938051944102272e-03  5.6453363469317636e-03  1.1953257469503657e-02  1.4904371753404451e-02  1.1689094863051192e-02  1.2024586608971322e-02  1.7901689169338496e-02  2.9803356937402017e-02  7.0592608318383694e-03  7.1331448718183095e-03  1.4929629599164267e-03  2.7857990036918218e-03  3.2559748942761289e-03  1.8527658400440497e-03  5.1439913895467383e-03  7.3382115395711888e-03  9.8136518587332092e-03  9.2695307277967133e-03  4.9863012031245140e-03  6.9965520569442077e-03  1.1904089479280174e-02  4.0939777951418045e-02  9.9578639475267541e-03  6.3665230859318526e-03  6.0585511895731295e-03  1.2524354942931295e-03  1.9375050055863884e-02  1.2360189194574617e-03  2.8414660321178526e-02  5.8293797618565742e-02  3.1104422078862496e-03  6.4514388705111678e-03  1.7446093133957095e-02  3.9990901131345940e-03  3.0793870393992315e-03  1.8222505298862480e-03  1.3271003894873260e-03  1.3376599726552167e-03  2.7461356044804250e-02  2.8445493294074848e-03  1.3452212484381556e-02  4.2462783380038229e-03  1.5620525807447896e-02  2.2443515979232477e-02  1.2620203130303525e-02  4.5733328004382519e-02  8.3301877593913408e-03  1.0791032182895110e-02  6.6963359316678205e-03  1.7426655877644928e-02  2.1145756176468432e-02  1.1362164819095505e-03  1.9739819301166925e-03  3.3443418243164708e-03  7.9405094148752766e-03  3.8450575092091061e-03  1.4929307603585693e-02  2.3250654009517570e-02  4.3598326147271382e-03  5.8871437919016372e-03  1.0466467666066007e-03  1.2711935601694951e-02  3.5668400807646321e-02  9.1171254086436469e-03  1.3487554959000429e-03  2.7335496344597465e-03  1.0142309340181383e-02  3.7329438849431243e-03  1.4330116485246460e-03  2.0007828309491670e-02  3.3607879229151380e-03  3.8754331487625112e-03  1.7634797802716284e-03  7.3067209699637214e-03  2.8071028039982821e-03  1.2074809263183588e-02  1.6004326600540116e-03  1.6672324984393406e-03  7.1454135303793053e-03  3.0431412998975804e-03  6.1169841035207482e-03  9.1129391328917276e-03  3.0702990052326102e-03  2.6051066113216988e-03  1.4098221722309750e-02  1.2669030781805837e-03  5.2040204946520955e-03  1.2233373550693736e-02  8.7094639527554238e-03  3.4209588480238896e-02  1.8726242507884859e-03  5.7878867260641315e-03  2.3440826100764663e-03  1.8843318021881668e-02  8.7882653472271259e-04  8.4953551577292580e-03  3.8617972854598972e-03  6.6090297114140793e-03  8.8974696748757159e-03  9.2247631636406553e-03  1.4491801244975053e-02  2.1024941507682402e-03  4.2726295092602139e-02  2.0322360070072166e-03  5.3918666815187767e-03  1.8145206892831250e-02  4.4082435582016638e-03  8.5544652377262905e-04  4.0780240061832666e-02  5.7206302366866600e-02  1.5259257690143746e-02  2.0959792197715985e-03  8.4761384557779165e-03  8.6392939648690190e-03  1.6920953717276827e-02  1.2281286139945651e-02  8.2882057269980571e-03  8.8108740495317760e-03  8.0838754286950091e-03  2.2476884167345113e-03  1.4898416447138876e-02  4.6838142636511128e-03  4.9506664151973002e-02  4.1342309798954079e-03  5.6112125874423456e-03  9.7487224988104392e-04  1.1965818092739822e-03  2.2856679468097742e-02  7.0766823142050855e-03  9.5415124919798135e-04  2.1948320152203181e-02  2.2391195803873169e-02  3.7635778172205335e-02  1.4857118980965374e-02  4.1359214241216267e-02  1.8529768951541156e-03  2.6539890646307181e-02  5.6631253332619031e-03  1.9256721576481669e-02  2.5239486299738621e-02  8.6001474605106867e-04  3.0765105934318373e-03  6.0643298778546321e-03  3.7952135854778263e-03  2.8409292824150265e-03  1.7119753267209797e-02  1.9101055461429275e-02  1.6605436999279244e-02  3.6910952979870974e-03  5.7215422696743319e-03  4.0710588245734961e-03  8.2840850453161276e-04  9.6528986609906251e-03  2.8399368545275576e-02  9.6767019769475348e-04  8.3671747532632866e-03  2.2904168502867728e-03  2.4512513384062448e-02  1.0390006079302377e-02  1.2444279360132045e-02  6.3169463665307653e-03  8.7328858950492163e-03  1.2330294751860942e-02  8.2987748143134989e-04  2.5662985822123537e-03  1.1130614995736945e-02  2.3530039762465365e-03  1.5532427959905927e-03  1.9194681006714641e-03  4.5507488242544341e-03  3.4119067866465670e-03  1.7255480018716539e-02  1.4545158831384079e-02  1.1622257092786185e-02  2.4699038720825866e-03  5.2508131488468611e-03  8.5152049781766354e-04  6.9036157176371833e-03  5.8261192748584080e-03  4.5615553783939387e-03  4.3532974083106152e-03  8.7296407781602831e-04  6.4966177415068677e-03  1.0403026190426972e-03  1.5654485492465958e-03  3.2969784162222161e-02  2.7557587022651671e-03  3.5139895831722873e-03  9.4213379528677813e-03  3.7800511853668373e-03  1.1280326605111799e-02  7.2726548152056737e-03  6.9640109555529368e-03  6.9751978417067831e-03  1.7305758997497409e-02  7.2842106849134404e-04  6.7756119955022370e-03  9.5737500261522303e-03  1.2810802732045358e-02  4.8696195067810095e-02  3.2480524706413449e-03  9.6839584363266106e-04  2.3439942441616604e-03  1.7060722056262568e-03  1.0364090490684751e-02  3.2628977680936272e-03  1.6469660166621571e-02  9.7908378057352877e-03  2.9134369427426194e-03  1.4010771026873251e-03  1.3194077761777487e-02  1.9876435374978973e-02  1.5459880776948889e-02  3.1923309441751556e-02  2.4130211808307045e-02  7.4178215620983854e-04  7.6037255921182717e-04  4.4285920201393783e-03  9.2420371493749914e-04  8.8957902990493345e-03  7.3176463682420667e-03  7.1774442921068531e-04  4.5430202964883296e-03  5.1789504612987630e-03  8.5839704502953893e-03  1.4001309803176636e-02  1.0933918533691358e-02  3.5450157505247791e-02  1.0773414320898634e-02  2.9363945354857076e-03  3.4608520381385066e-02  3.6010431627720871e-02  2.2670341311495014e-02  2.2147163763115079e-02  8.3406244575967379e-03  1.1613580033378892e-02  3.7190799113944566e-03  4.0750572150620419e-03  4.7515761459271189e-03  1.3415534759607659e-03  7.3289908248152045e-03  2.7248321594015934e-03  1.0144686532802153e-02  3.8280110541144639e-03  3.2864296895052224e-03  4.7218386468933289e-02  6.0041191465634389e-03  4.3027054879316131e-03  5.5055972730104407e-03  4.8204007478715050e-03  2.9162775226040383e-03  7.2905774675350362e-03  6.0312850320320662e-03  1.1158053292791388e-03  4.5391494514838687e-03  1.6907498113844315e-03  1.0099260018339060e-02  6.2144388799905130e-04  1.1711129351386351e-02  3.8080972435846541e-03  9.3105345315706405e-03  1.5153430683771840e-02  9.7537708388410107e-03  4.6252610908899903e-03  3.2927205463186379e-02  4.9175053834396030e-03  4.8913448372213172e-03  5.3935008798787158e-03  6.0863614013472996e-04  2.4415390665594784e-03  1.0470671826716927e-02  1.9425269135119803e-02  1.3182137436668063e-02  5.2523289927200048e-03  2.9517652695345984e-02  4.8951869751711506e-03  2.8695551331015704e-02  2.5529307697540249e-02  6.4870953480338303e-04  6.0287537334493494e-03  4.3402205294295580e-03  2.2108868897197593e-03  1.9955120352250265e-03  6.1024268456865462e-03  1.9124288229291394e-03  6.7496459661495973e-03  2.1313318502960109e-02  9.4809340994044162e-04  5.0758124924549872e-03  9.3316749205882826e-03  1.1370158604718430e-02  4.9727411256607366e-02  1.5109653686241818e-02  5.6088617585389959e-02  9.5545231833305874e-03  2.1265741127508512e-03  2.5442836811268462e-02  2.6194583637570549e-02  1.3574149823167922e-02  9.3311417644316389e-03  1.1371714777163207e-02  7.2088786179352014e-03  6.7092658242492932e-04  9.9165806748847604e-03  1.9042242063404056e-03  1.4028826920496985e-02  2.3905790223858791e-03  2.2973603405707362e-02  1.0127522052210491e-03  1.4431104406155597e-03  6.9325986471598265e-03  2.3202595966778372e-02  2.9252698124181548e-02  2.2282338916579932e-02  1.9655043065483074e-02  3.0248424839152284e-03  4.1212317321814235e-03  3.0950337502384049e-03  3.3391484961117347e-03  4.8591023279531192e-03  3.6187796799046386e-03  3.2482878962084441e-03  1.6273689842181357e-02  1.3818684029216519e-02  1.4825347196832026e-03  2.3394143913647207e-03  7.1953448679381296e-03  1.7714015031104315e-03  1.5004220631945849e-03  1.5105979031966850e-03  2.5330486679387705e-02  2.0811487213853634e-03  1.4250417131408932e-02  5.7391716100863488e-04  5.6471630384696487e-03  2.8071657697973200e-03  3.8303812628991333e-03  2.6905875517462927e-03  2.1575915462731399e-02  1.7638765083708121e-02  4.1585708169405320e-03  7.8736402269154286e-03  6.0955537167235790e-03  2.3425710063478709e-03  3.8788757378616415e-03  1.6309862675976602e-03  4.0094573772436626e-03  1.0342251369611125e-02  1.5110521370149600e-02  7.1840805683923920e-03  7.3725438829064151e-03  8.6244707181970439e-03  1.8292968571892037e-02  1.2786380059456421e-02  1.1470783476649317e-02  2.7088420792937128e-02  6.3212403435419361e-04  7.4767862208414259e-03  7.0087891152570267e-03  1.8237648126247622e-02  1.4110358917826140e-02  1.3879990158956423e-02  5.2424019755999856e-04  5.7550677239294842e-02  5.3765696869271795e-03  4.5906891916062493e-03  2.7343166718902152e-02  4.6364743159483949e-03  1.4937762894350053e-02  2.6549189354612012e-03  1.8453543453811833e-03  9.5353878985403248e-03  9.8800181599256244e-04  1.9089511082741846e-03  3.9586444416121304e-03  9.9766885419244177e-03  2.0681539391297736e-03  6.9155148840152213e-04  6.5619152098005812e-03  2.0374078249999508e-02  1.7618790133773203e-02  3.5962738938554575e-02  6.9118352809755777e-03  3.8616282243520185e-02  5.4700994301968703e-03  5.6731359763553951e-03  4.7052058261233317e-03  4.2809156942625895e-02  1.4560975453640544e-03  1.2776291132057512e-03  3.3014581649333706e-02  4.7072386983744762e-03  5.2878417039026911e-03  4.6702611298115065e-02  9.6117247883743175e-03  1.3037065506407428e-03  5.6357718766822029e-03  1.1599292644730159e-02  1.3482271657931414e-03  1.1599127775666275e-02  1.6267227589532522e-02  4.9013220285350158e-04  7.1105542349388811e-04  3.0354725877293014e-03  1.7766867441956245e-02  1.5668013437338764e-02  7.8933992736485194e-03  3.0282814341219626e-03  2.7111244651022680e-03  3.3003080693982494e-02  1.9853864822304240e-03  5.3521299915792915e-03  6.4195002993908731e-03  3.8765042558017847e-02  2.8388829115867523e-03  4.8532740715689859e-02  1.4663396494827971e-02  3.8516828003313436e-02  1.9756599146067582e-03  2.0747879106257389e-02  5.8791187021843740e-03  6.3150781592081510e-03  3.1784421606245021e-03  1.4883029362554649e-02  2.5956519253610533e-02  2.8114641675059383e-02  7.8324671111060272e-04  9.6492326624184332e-03  1.4604169123850560e-02  2.1810103217249749e-03  2.0123099839768861e-02  1.9314886838253414e-02  1.0977445334555843e-03  2.3827454880458215e-02  2.1702469680149598e-02  1.3466632268798291e-03  8.4280139520990314e-03  1.6886979307931531e-02  3.4867911199595782e-03  3.9554875772598343e-03  6.0487129556535263e-03  7.3368868890216223e-04  2.1140478212068755e-03  1.4106572673620152e-03  5.3126676870325152e-03  2.2594116565364367e-02  2.6783791068935168e-02  3.3598998383884298e-03  4.2606444454963269e-02  3.7743935326593488e-02  8.9740613855725914e-03  6.4319525973882945e-04  2.7620073163310603e-02  1.2584266882991142e-02  1.2990591027888349e-02  1.0932363909260329e-02  1.4342687448818751e-02  6.4254467036648410e-04  7.4577859306030414e-03  1.6710701778227851e-03  2.0134438825689591e-03  8.7801092447340162e-04  2.9506691672060046e-03  1.7515105786237183e-02  9.5284515231742351e-03  2.1336140447711850e-02  8.6926251793822485e-04  1.1652030212608347e-02  8.8724598769724565e-04  1.0525187094386065e-03  7.1350047172009032e-03  8.1257369075687334e-03  4.4260431532484558e-03  5.8535443570359523e-04  7.0577292880398615e-03  7.6114977474586124e-03  6.0505048092593134e-04  2.4915976233015509e-03  2.6751274543640935e-03  5.9338003649815998e-04  8.7373953485206362e-03  9.1374139784713149e-03  8.0615013085364451e-03  1.2767982269218799e-02  2.7335383039364714e-02  7.4374969387278646e-03  4.7931098001623162e-04  7.2513205641630022e-03  2.2636668898794563e-03  1.9347268854998259e-03  4.8211497518955347e-04  4.5374449460990768e-04  5.4156681464237347e-04  1.6664693201370092e-02  2.9411335938662422e-02  2.1680280814208200e-03  1.1786910715559592e-03  1.9447365350848094e-03  7.5125301692813371e-03  2.1948367283830778e-02  2.5006470145655618e-03  8.8473860604362971e-03  7.9837997941612365e-03  3.5484080575014874e-03  7.5290677528533296e-03  3.9199056205898595e-03  1.0830992176321568e-02  9.0194174550030249e-03  2.2262367439650904e-03  1.3658193358773833e-03  9.4621296497696978e-03  7.4136433983662162e-04  1.0564005720560991e-02  1.8491480883542119e-02  3.1520256555997504e-03  2.5744894750177856e-03  1.1090184028058604e-02  1.0951801642733352e-02  5.8759577974490107e-03  4.3191321217049689e-02  5.2541729481112305e-02  9.4530629413860888e-03  1.7860803249129847e-02  5.4041135883894798e-03  3.3796396675155244e-03  2.8499988313306270e-02  1.1765206978680118e-02  1.3578023116452809e-02  7.5913171282920022e-03  1.7624040736561934e-02  2.2100784604241206e-03  2.8272601671806979e-03  3.5510856079547337e-03  4.3449372581977558e-03  1.4070271165835245e-02  1.0365455704932804e-02  4.2670260729842820e-03  3.9809344425996894e-02  3.6048935249279280e-03  3.8383737442637345e-02  2.9757085433535376e-03  3.5308491141568298e-03  2.3981663891861640e-03  2.8710982883292640e-02  2.0546344040986184e-02  1.6760869368568850e-02  2.0940052188766364e-02  1.8604734276544813e-02  1.1637114845638990e-03  1.5599761047229109e-03  2.6005901935166192e-02  1.4422567980397144e-03  3.4861983821091666e-03  5.2002329386384204e-03  9.0984670194570599e-03  3.7955822693378767e-03  1.2828832769818303e-02  5.8258114006657009e-04  3.4545230191041026e-03  4.2050863568523370e-03  1.7290006617749945e-03  4.9382474220906140e-03  4.5699345436274038e-03  9.8914840513926916e-04  1.1000019651226978e-02  1.3071661719520644e-02  9.4757657938694707e-03  1.1790751440036459e-03  6.4666592418144405e-03  4.0725640429843564e-03  3.2876484152517772e-03  3.772352993868722