<?xml version="1.0"?>
<VTKFile type="UnstructuredGrid"  version="0.1"  >
<UnstructuredGrid>
<Piece  NumberOfPoints="8330" NumberOfCells="16256">
<Points>
<DataArray  type="Float64"  NumberOfComponents="3"  format="ascii">-0.999877856940653 0.01562917783400803 0  -0.999877856940653 -0.01562917783400779 0  -0.9989008914857115 -0.04687226246994006 0  -0.9969479151539236 -0.07806954893071458 0  -0.994020836168776 -0.1091905548219597 0  -0.9901225145346509 -0.140204872281886 0  -0.985256759242359 -0.1710821976923499 0  -0.979428324547432 -0.2017923612880579 0  -0.9726429053248131 -0.2323053566349829 0  -0.9649071315044797 -0.2625913699491981 0  -0.9562285615934407 -0.2926208092274699 0  -0.9466156752904342 -0.3223643331611536 0  -0.9360778652005416 -0.3517928798051443 0  -0.9246254276578175 -0.3808776949738565 0  -0.912269552664897 -0.4095903603365061 0  -0.8990223129594145 -0.4379028211842264 0  -0.8848966522179168 -0.4657874138418977 0  -0.8699063724087903 -0.4932168926979072 0  -0.8540661203065708 -0.520164456825418 0  -0.8373913731808008 -0.5466037761691488 0  -0.8198984236734247 -0.5725090172720717 0  -0.8016043638794972 -0.5978548685168891 0  -0.7825270686467568 -0.6226165648576288 0  -0.7626851781103819 -0.6467699120171987 0  -0.7420980794800013 -0.6702913101272414 0  -0.7207858880967426 -0.6931577767872117 0  -0.6987694277788415 -0.7153469695201277 0  -0.6760702104750047 -0.7368372076030654 0  -0.6527104152454097 -0.7576074932510666 0  -0.6287128665908849 -0.777637532133752 0  -0.6041010121514363 -0.7969077532046042 0  -0.5788988997959114 -0.8153993278235415 0  -0.5531311541251993 -0.8330941881540916 0  -0.5268229524119011 -0.8499750448172039 0  -0.5000000000000004 -0.8660254037844384 0  -0.4726885051885656 -0.8812295824940283 0  -0.4449151536240167 -0.895572725174074 0  -0.4167070822259868 -0.9090408173578921 0  -0.3880918526722498 -0.9216206995773374 0  -0.3590974244686246 -0.933300080220719 0  -0.3297521276301665 -0.9440675475427478 0  -0.3000846350003414 -0.9539125808147788 0  -0.2701239342352219 -0.9628255606044562 0  -0.2398992994800976 -0.9707977781747126 0  -0.2094402627661449 -0.977821443992945 0  -0.1787765851551298 -0.9838896953420493 0  -0.1479382276603303 -0.9889966030258751 0  -0.1169553219720827 -0.9931371771625541 0  -0.08585814101656615 -0.9963073720600383 0  -0.05467706937658603 -0.9985040901690829 0  -0.02344257360326047 -0.9997251851098159 0  0.007814827552383885 -0.9999694637689326 0  0.03906459295881858 -0.9992366874654682 0  0.07027618894529319 -0.9975275721840101 0  0.101419119135812 -0.9948437878751196 0  0.1324629542466875 -0.991187956823649 0  0.1633773618185298 -0.9865636510865465 0  0.1941321358536273 -0.9809753890026542 0  0.2246972263297716 -0.9744286307779074 0  0.2550427685616763 -0.9669297731502506 0  0.2851391123813071 -0.9584861431394824 0  0.3149568511086103 -0.9491059908881351 0  0.3444668502843322 -0.9387984816003867 0  0.3736402761368591 -0.927573686586878 0  0.4024486237552531 -0.9154425734241896 0  0.4308637449409699 -0.9024169952385886 0  0.4588578757110361 -0.8885096791245188 0  0.4864036634258114 -0.8737342137091519 0  0.5134741935148417 -0.8581050358751444 0  0.5400430157746755 -0.841637416654579 0  0.566084170212953 -0.8243474463078735 0  0.5915722124135223 -0.8062520186022298 0  0.6164822383977913 -0.7873688143049919 0  0.6407899089580255 -0.7677162839080369 0  0.6644714734388212 -0.7473136296000776 0  0.6875037929435054 -0.7261807865044996 0  0.7098643629428029 -0.7043384032010527 0  0.7315313352636693 -0.6818078215504374 0  0.7524835394368069 -0.6586110558415 0  0.7727005033820112 -0.6347707712814024 0  0.7921624734111292 -0.6103102618497922 0  0.810850433529085 -0.5852534275386133 0  0.8287461240141216 -0.5596247509997839 0  0.8458320592590974 -0.5334492736235703 0  0.862091544856406 -0.5067525710710259 0  0.8775086939098309 -0.4795607282843985 0  0.8920684425573863 -0.4519003139999344 0  0.9057565646899907 -0.423798354787966 0  0.91855968585158 -0.3952823086456649 0  0.9304652963070865 -0.3663800381682464 0  0.9414617632655112 -0.3371197833248509 0  0.9515383422461453 -0.3075301338657036 0  0.9606851875768402 -0.2776400013875007 0  0.9688933620140637 -0.2474785910843287 0  0.9761548454753451 -0.2170753732117144 0  0.982462542875576 -0.1864600542916819 0  0.9878102910595093 -0.1556625480869676 0  0.9921928648236853 -0.1247129463727333 0  0.9956059820218981 -0.09364148953435038 0  0.998046307749216 -0.06247853701998218 0  0.9995114576004659 -0.03125453767682462 0  1 0 0  0.9995114576004659 0.03125453767682429 0  0.998046307749216 0.06247853701998265 0  0.9956059820218981 0.09364148953435077 0  0.9921928648236853 0.1247129463727328 0  0.9878102910595095 0.155662548086967 0  0.9824625428755761 0.1864600542916812 0  0.9761548454753453 0.2170753732117136 0  0.9688933620140637 0.2474785910843287 0  0.9606851875768402 0.2776400013875006 0  0.9515383422461454 0.3075301338657034 0  0.9414617632655113 0.3371197833248507 0  0.9304652963070866 0.3663800381682462 0  0.9185596858515798 0.3952823086456654 0  0.9057565646899906 0.4237983547879663 0  0.8920684425573865 0.4519003139999338 0  0.8775086939098312 0.4795607282843979 0  0.8620915448564065 0.5067525710710252 0  0.8458320592590974 0.5334492736235703 0  0.8287461240141217 0.5596247509997838 0  0.810850433529085 0.5852534275386132 0  0.7921624734111293 0.6103102618497921 0  0.7727005033820115 0.6347707712814021 0  0.7524835394368066 0.6586110558415004 0  0.731531335263669 0.6818078215504377 0  0.7098643629428033 0.7043384032010522 0  0.6875037929435059 0.7261807865044991 0  0.6644714734388218 0.747313629600077 0  0.6407899089580261 0.7677162839080363 0  0.6164822383977913 0.7873688143049919 0  0.5915722124135225 0.8062520186022297 0  0.5660841702129533 0.8243474463078734 0  0.5400430157746758 0.8416374166545789 0  0.5134741935148419 0.8581050358751443 0  0.4864036634258112 0.8737342137091521 0  0.4588578757110357 0.8885096791245191 0  0.4308637449409705 0.9024169952385883 0  0.4024486237552537 0.9154425734241893 0  0.3736402761368599 0.9275736865868777 0  0.344466850284333 0.9387984816003864 0  0.3149568511086103 0.9491059908881351 0  0.2851391123813073 0.9584861431394823 0  0.2550427685616765 0.9669297731502506 0  0.2246972263297718 0.9744286307779073 0  0.1941321358536277 0.9809753890026541 0  0.1633773618185302 0.9865636510865465 0  0.1324629542466882 0.9911879568236489 0  0.1014191191358116 0.9948437878751196 0  0.07027618894529299 0.9975275721840101 0  0.03906459295881949 0.9992366874654682 0  0.007814827552383908 0.9999694637689326 0  -0.02344257360326044 0.9997251851098159 0  -0.05467706937658601 0.9985040901690829 0  -0.08585814101656591 0.9963073720600383 0  -0.1169553219720823 0.9931371771625542 0  -0.14793822766033 0.9889966030258751 0  -0.1787765851551293 0.9838896953420494 0  -0.2094402627661442 0.9778214439929452 0  -0.2398992994800977 0.9707977781747126 0  -0.2701239342352221 0.9628255606044562 0  -0.3000846350003405 0.953912580814779 0  -0.3297521276301665 0.9440675475427478 0  -0.3590974244686244 0.9333000802207191 0  -0.3880918526722498 0.9216206995773374 0  -0.4167070822259866 0.9090408173578922 0  -0.4449151536240162 0.8955727251740744 0  -0.4726885051885654 0.8812295824940284 0  -0.4999999999999998 0.8660254037844388 0  -0.5268229524119005 0.8499750448172043 0  -0.5531311541251993 0.8330941881540916 0  -0.5788988997959115 0.8153993278235415 0  -0.6041010121514356 0.7969077532046046 0  -0.6287128665908847 0.7776375321337522 0  -0.6527104152454094 0.7576074932510668 0  -0.6760702104750045 0.7368372076030656 0  -0.6987694277788417 0.7153469695201276 0  -0.7207858880967422 0.6931577767872122 0  -0.7420980794800012 0.6702913101272416 0  -0.7626851781103818 0.6467699120171988 0  -0.7825270686467566 0.6226165648576291 0  -0.8016043638794973 0.5978548685168888 0  -0.8198984236734244 0.5725090172720723 0  -0.8373913731808004 0.5466037761691493 0  -0.8540661203065709 0.5201644568254178 0  -0.8699063724087902 0.4932168926979075 0  -0.8848966522179167 0.4657874138418979 0  -0.8990223129594146 0.4379028211842262 0  -0.9122695526648966 0.4095903603365067 0  -0.9246254276578173 0.3808776949738572 0  -0.9360778652005417 0.3517928798051441 0  -0.9466156752904341 0.3223643331611538 0  -0.9562285615934408 0.2926208092274696 0  -0.9649071315044796 0.2625913699491987 0  -0.972642905324813 0.2323053566349835 0  -0.9794283245474321 0.2017923612880577 0  -0.9852567592423589 0.1710821976923501 0  -0.9901225145346509 0.1402048722818858 0  -0.994020836168776 0.1091905548219599 0  -0.9969479151539234 0.07806954893071527 0  -0.9989008914857115 0.04687226246993987 0  0 -1.110223024625157e-16 0  0.2224847517802496 0.4478410632646048 0  -0.3762877306530188 0.3293457552188769 0  0.4995114576004658 0.02343899414542408 0  -0.3437938885090808 -0.3631347476412812 0  0.2500305394950237 -0.4330655978492388 0  -0.5910825982481791 -0.01848304308728406 0  -0.1205694983025768 0.6092536404606523 0  -0.08356208279008798 -0.6252746707912535 0  0.5743244451670773 -0.3138697668836511 0  0.5520526480997421 0.3603500964540577 0  -0.06677303979652388 0.3033428066504551 0  -0.03647984413154998 -0.3097720463955049 0  -0.2970873745561939 0.04020154252218244 0  -0.6322152278962743 -0.3202649554364072 0  -0.6590452866330614 0.2637215678282478 0  0.136614205795081 0.71059545494886 0  0.1820428175971504 -0.7006595228589965 0  -0.4118661396500117 0.5997708791493779 0  -0.355660862682262 -0.6351540923831073 0  0.2568934265547184 -0.1403929095917472 0  0.7303101369593297 -0.1023222011141449 0  0.480517081826453 -0.5593979469567156 0  0.4379912803458429 0.5951614090488669 0  0.7211050798944474 0.1614339748331999 0  0.2428668023182484 0.1585303067417896 0  -0.2184715887138773 -0.1732746610886907 0  -0.7684056306611182 -0.1458345222930807 0  -0.4653545072898446 -0.189313807999201 0  -0.7835704881280359 0.07369854037483542 0  -0.5103648636982135 -0.4921365326710684 0  -0.5518453856321546 0.4438015532546613 0  -0.4851249279863067 0.1563204538619729 0  -0.04592
[...]
<PointData  Scalars="f_145"> 
<DataArray  type="Float64"  Name="f_145"  format="ascii">2.1006853729438251e-37  1.9044762516145299e-38  1.7286197024528508e-39  1.5745298550764660e-40  1.4426021963050998e-41  1.3326028710560367e-42  1.2440106770171597e-43  1.1763131592838373e-44  1.1292708469748161e-45  1.1031739418970524e-46  1.0991262908717682e-47  1.1194058327410998e-48  1.1679741458901859e-49  1.2512487302105157e-50  1.3793252495219893e-51  1.5679711615049079e-52  1.8419612611459310e-53  2.2407979354070174e-54  2.8287762329158213e-55  3.7131833665802927e-56  5.0781759659196255e-57  7.2498142850075963e-58  1.0825047552317661e-58  1.6936493928862380e-59  2.7816028407909630e-60  4.8040906632938404e-61  8.7401108058758155e-62  1.6777818318820638e-62  3.4038247916146062e-63  7.3095217304240293e-64  1.6640008723126210e-64  4.0215082904228244e-65  1.0332320020669081e-65  2.8259004488477831e-66  8.2378927836399054e-67  2.5627058070340265e-67  8.5172659490712260e-68  3.0275263853338219e-68  1.1521283340745986e-68  4.6983886840657688e-69  2.0550046822772700e-69  9.6481353058825054e-70  4.8658811344122258e-70  2.6378956759955512e-70  1.5381247383368454e-70  9.6514422624091022e-71  6.5201465410680297e-71  4.7440953359909753e-71  3.7189069314908488e-71  3.1415673728623262e-71  2.8603435707891115e-71  2.8071820366618384e-71  2.9696923641314068e-71  3.3862341034492293e-71  4.1613230096920559e-71  5.5101997768049682e-71  7.8596931029326182e-71  1.2072451100772838e-70  1.9959737509173241e-70  3.5503432635263608e-70  6.7904354975428612e-70  1.3956017405512234e-69  3.0800394051988220e-69  7.2936685349863352e-69  1.8516757608049739e-68  5.0352110928769077e-68  1.4651421008873854e-67  4.5571980814932050e-67  1.5135285963939562e-66  5.3610341754647163e-66  2.0227167413731931e-65  8.1187027136543990e-65  3.4618923935776605e-64  1.5660313485627399e-63  7.5042420435841019e-63  3.8033631820076255e-62  2.0356102842503376e-61  1.1486177302032329e-60  6.8214417658851397e-60  4.2563824669515564e-59  2.7854282860857280e-58  1.9082401441404231e-57  1.3659889775916574e-56  1.0197630144249126e-55  7.9238485635165043e-55  6.3956971922889861e-54  5.3514105192106180e-53  4.6320778591261938e-52  4.1389941518560446e-51  3.8097443208595401e-50  3.6044332943599996e-49  3.4975563675301774e-48  3.4730793642289769e-47  3.5213795962200694e-46  3.6372753938365977e-45  3.8186856138170773e-44  4.0656338796030470e-43  4.3794098831799772e-42  4.7617572850122998e-41  5.2139954233393581e-40  5.7360137148510263e-39  6.3251129672801308e-38  6.9747138060831162e-37  7.6730128817859404e-36  8.4017415534343123e-35  9.1352613973193725e-34  9.8402992580233410e-33  1.0476655607389008e-31  1.0999182002178005e-30  1.1361187556093005e-29  1.1519187975059615e-28  1.1438573062113469e-27  1.1099401981291892e-26  1.0501243831456953e-25  9.6658880348781817e-25  8.6369563002991984e-24  7.4759829964893805e-23  6.2553077242444502e-22  5.0489422820442215e-21  3.9231717058710165e-20  2.9287977212956851e-19  2.0965418934143533e-18  1.4362981179125864e-17  9.3993090046500637e-17  5.8648971026823898e-16  3.4830608127367858e-15  1.9653592025149198e-14  1.0518862421057054e-13  5.3312584824015951e-13  2.5546777263156724e-12  1.1556411783068343e-11  4.9277643805788649e-11  1.9778871272748987e-10  7.4625627704356130e-10  2.6432968722344585e-09  8.7788709934121655e-09  2.7305920718968078e-08  7.9454571637422215e-08  2.1605863669923337e-07  5.4851757873211646e-07  1.2989137080949650e-06  2.8666526335122119e-06  5.8916772073501768e-06  1.1268503093731330e-05  2.0043877846823801e-05  3.3139131163094311e-05  5.0901547331318275e-05  7.2605451107716584e-05  9.6140227412472572e-05  1.1814615536505167e-04  1.3471783990849859e-04  1.4251677848590375e-04  1.3986800207297913e-04  1.2734743298661888e-04  1.0757745430541149e-04  8.4330206742144374e-05  6.1359133260064516e-05  4.1451891811730570e-05  2.6010279304209020e-05  1.5166276063498128e-05  8.2219546560475542e-06  4.1466099697484208e-06  1.9468108464123292e-06  8.5150584038596436e-07  3.4724477183341163e-07  1.3214436129329861e-07  4.6971709334986795e-08  1.5611255080097092e-08  4.8564669509060909e-09  1.4157276511692842e-09  3.8720300928372702e-10  9.9482709370836683e-11  2.4042688146704126e-11  5.4732793094159507e-12  1.1753558569587463e-12  2.3845206384179574e-13  4.5774081058511922e-14  8.3277058766884256e-15  1.4382734106454012e-15  2.3621804026792766e-16  3.6957855247749765e-17  5.5183557089990325e-18  7.8782331131001347e-19  1.0774327604968631e-19  1.4142883973405196e-20  1.7853932037646785e-21  2.1719812947621694e-22  2.5515172109707038e-23  2.9004800762343874e-24  3.1973702016965087e-25  3.4253372978870394e-26  3.5739544031935126e-27  3.6398960138714059e-28  3.6265408862050882e-29  3.5427332739555941e-30  3.4010547049572422e-31  3.2159735272355236e-32  3.0021737846887625e-33  2.7732561444398400e-34  2.5408888831081615e-35  2.3143930381034618e-36  3.9438022303965785e-10  3.8257285193019325e-02  4.2701528624555493e-06  2.6747644095386044e-16  3.4164573272723192e-29  1.5889684545872840e-31  1.8155742675887603e-20  1.5690114933994321e+00  4.7822314630686175e-42  1.6629616046498660e-32  3.4271065312625685e-10  1.0765487018163676e-02  3.6281771239233077e-23  2.7458103275166505e-11  8.9837458716003867e-35  2.4349904493611529e-15  5.5378842183647059e-01  4.5707293479697092e-48  7.7110824934826258e-05  4.8104500424981912e-46  3.3973094443493715e-17  1.1684490419621564e-28  6.6433839948959810e-44  1.8592892932847225e-05  6.3515810201724360e-20  3.5116446644851541e-07  4.5225667393764069e-18  5.3611101591152379e-32  1.8463316579656319e-23  6.8789207008913789e-25  1.6204276160913077e-40  2.8804830214897988e-09  3.8832033181976832e-12  2.9291170020287133e-01  1.3341842847560079e-02  5.4890205711089522e-55  4.2319786692765696e-54  4.6417408549290527e-36  1.4616658506443418e+00  2.0098903754251732e-02  1.9512395349810574e-35  1.2923836734500910e-09  5.3917574662881058e-22  1.1983997900966990e-44  4.4074682011626145e-38  4.5089539495180411e-11  5.1486601341836113e-17  9.7243572760594965e-06  1.3572509832296458e-32  2.6126880876500476e-05  1.4758552689922632e-05  1.9693767007398886e-22  1.3600798563827019e-03  4.6179494799401666e-53  2.3501088038355215e-15  9.0789472990200476e-46  2.1992480172224912e-03  1.7709703494362585e-41  6.6431580866575714e-32  3.3899949528968984e-15  6.9515906244701969e-11  1.0656115713318379e-15  1.1765669824975349e-13  3.3672765379279193e-08  6.8242273111146085e-02  2.6528418009389866e-26  2.5032163867989399e-09  1.8474831432823018e-51  3.0821432683107599e-28  2.7360241403888992e-22  2.4217461477540940e-40  4.1560642341343367e-27  2.9790751313803376e-24  1.3498245651490438e-16  1.1693933020248271e-13  6.0409039729179024e-31  4.1517736709704776e-18  4.4853567161874674e-10  3.3989437277619550e-01  1.6203827883971345e-05  3.9000536950193068e-23  2.5413344714986677e-21  2.2093710183994879e-58  4.4550544544797427e-02  1.5569466672827596e-56  5.2899179487528460e-02  3.7513420683403251e+00  8.7741638654532588e-45  5.0274788238525443e-09  1.9221302449281322e-05  1.6871284141241804e-37  2.8359139830405948e-44  8.4091133476177118e-37  2.6422774749501325e-51  1.1684915284609478e-53  3.4119369648019015e-03  1.0727522706129880e-22  1.2231805879122683e-12  3.2368990776908071e-30  6.3487947601236222e-09  1.3145315839841278e-03  1.6192838632597191e-07  9.8617165026609699e-01  1.9491579169797665e-06  4.5535458049111685e-16  6.1402659017370767e-28  1.1643615390017847e-02  2.5573538077656708e-05  1.5433661971239492e-58  7.6543642280479023e-33  1.6485996627942277e-38  1.8053439372775873e-22  6.5638945718228375e-40  9.3246160619359867e-03  4.7767212708485007e-05  3.1763839047063537e-13  1.1407237717114957e-27  2.5210786051607329e-60  7.7129741905322842e-12  7.0322313888591351e-02  9.4830066349514521e-21  3.2683569937019329e-45  1.6652487692374794e-38  1.1628783085983549e-18  1.2427216592608694e-15  1.3671160257953115e-38  7.0087304253585504e-07  2.4380672333121218e-33  3.5544603967430008e-27  2.0877291668607585e-30  2.1244323122418391e-12  3.4745700161707554e-20  1.1538664727287626e-12  2.3227100862452673e-52  2.9834318657254243e-34  8.3421055582107578e-22  6.1272470911275508e-25  3.7153279225902186e-08  9.9282873227202206e-05  7.9948238858676294e-39  9.6817844198157735e-45  1.5362851374327760e-02  4.6555749759641963e-46  1.1835874450765253e-28  4.1812457601004106e-07  4.3043437265747959e-12  4.2023558315714710e-01  4.0269570757107762e-47  3.0020195330869560e-26  3.1944191293062492e-47  1.8033396238898855e-07  8.5729024047106546e-61  2.8669167847364277e-16  5.7345942595831103e-38  3.9274218438720664e-16  3.6996662379084267e-16  6.1728117302421097e-14  7.2314098166468298e-09  2.1877830298861558e-50  1.3413161788476793e+00  4.1184602430538635e-52  2.1851021291913809e-19  1.4115697429460659e-03  1.7299315276569940e-34  2.6595095071151288e-62  3.3305181712811305e-01  2.9862157034054699e+00  9.2595609034435762e-11  1.0917305267901838e-51  1.1052437331987664e-04  2.0121616248437368e-21  7.1914409866510463e-08  4.0978522149284387e-10  2.3420155327499320e-19  5.0199004720880484e-20  7.3666817576505643e-23  2.4091802604453717e-21  3.8177717357419196e-10  1.0306829597519571e-26  2.2055444049787414e+00  5.9756907795505727e-39  9.0457279498248224e-32  7.9866061791813210e-52  6.0666894150907955e-42  3.8649295657121495e-05  4.9955272812296959e-26  2.7113539569158782e-52  1.3554379011505820e-03  3.9687026113168828e-04  2.9641463720845829e-01  2.2793336090161762e-07  3.1401139727630745e-01  2.5130756783031447e-27  1.0709008309620920e-03  4.5658393876901101e-22  1.5909424230267832e-03  5.2455159455343001e-02  7.9048908124552511e-59  3.5576417017436964e-33  8.2605099226455940e-29  4.4752045212033568e-12  1.7799907830481392e-45  2.7948228811025557e-08  2.5412480162603902e-06  2.0057085311629460e-09  5.7162277358039331e-40  1.1684167619498427e-30  6.5487994287763405e-39  2.3148975573555893e-60  3.0570497314827467e-08  2.4553822623399999e-03  1.1474402315150351e-49  7.4489391056184130e-23  1.1543403946274894e-44  9.0054988565348940e-04  8.6701945407951751e-18  3.9067904295611554e-14  6.8189993283878273e-27  7.4728745008647024e-20  7.5753102103338395e-14  1.1739487997096293e-57  2.1793516015703487e-48  7.6349539513714846e-13  8.6016380495209171e-41  5.0662932061497026e-30  6.3787597090418282e-52  1.0171663210665204e-32  9.8728656494585479e-43  5.7290808042823120e-07  2.3616729889310328e-07  1.2419095369025827e-03  4.1850771855215518e-17  1.2800924759141946e-16  5.6073883475883267e-55  3.6274466760670210e-27  7.7044405178819342e-31  2.5995492350497893e-23  1.2105170022387529e-25  2.0100031347279567e-50  4.8135222268382582e-06  1.0346446096498080e-42  2.7736514198905444e-27  3.2453286018461570e-02  8.6805553598770294e-47  4.9709237637055588e-14  1.4073561920027254e-03  1.4709263350400631e-10  5.6139520275935951e-03  7.0870209453766587e-14  5.3210677185363258e-12  9.1190762219843179e-27  1.8228630539717677e-05  6.7785374120993343e-63  1.0026538635622591e-27  1.0961902645274504e-17  8.5804697781476957e-14  1.7539041048045121e+00  1.5106487519785846e-37  2.9995315018795942e-61  2.5008175815515148e-36  3.6539645934716441e-24  6.8972272886795975e-07  1.6001200545779966e-12  4.2549816509966656e-09  2.1934187146037730e-19  2.1196366955233151e-18  7.4511803149640678e-33  2.0523650517262509e-13  1.1492167673641254e-06  3.7449921515475290e-10  2.6327208315247434e-02  9.1041002107451838e-05  2.1787714536146451e-57  1.2111582209081072e-59  5.3191872956575762e-36  5.1275199537968954e-46  2.8056051954352772e-17  7.2534792136804180e-20  6.0188841849335249e-63  8.2188039889586658e-37  6.2896414016530455e-34  1.2696461372365162e-09  3.2876005927609497e-12  1.4393031240651939e-14  3.5002357678096674e-01  3.5927259204411812e-17  9.1535669829451586e-30  1.4156888717217694e-01  3.6687503401903887e-01  1.9209224604979227e-04  3.2624066064911555e-05  7.0394684310620839e-20  3.3162031706394195e-14  3.5447860419424091e-23  3.2306485037045128e-09  3.3101967269862996e-35  2.8391801279495136e-43  5.8295095825820457e-17  2.6369115921642296e-37  1.5453808880626510e-18  3.8339501866791103e-36  1.0486302296816777e-34  1.1043245043384533e+00  9.8365927796609533e-24  7.5808116759429202e-31  2.4042823340592475e-06  1.2635789511706322e-07  1.4022165170083045e-28  1.2571770958266509e-23  3.5086440940312170e-28  1.1396911014522467e-37  5.6772019645944087e-19  2.3924100146021908e-54  9.9520975540659087e-10  2.1620189534478531e-64  3.9850993206106391e-11  2.8421085491869403e-37  3.3257175539782328e-03  1.0050790885858276e-03  4.4467199668498765e-12  3.7383126593154125e-35  5.0075240099368160e-02  3.3072923627865750e-33  7.0124544460554655e-27  3.7334427319312235e-24  2.1975180840323471e-62  1.9026611402326921e-47  1.2068411943069927e-16  3.2053234658781833e-07  4.0041274879079613e-05  3.7781089926164219e-21  5.3423747504757445e-03  1.1009848420706967e-18  2.7214361439087575e-01  1.1752291365709733e-01  1.7586685331065530e-59  6.1076036216460169e-27  1.6951574196042616e-32  3.5284620214647726e-46  1.2854565448739345e-19  3.7134020150159811e-25  1.8284315153946204e-43  8.8934122561477652e-27  2.5718282017626868e-03  2.2194886040719284e-39  3.6598501145028040e-34  1.5491708427084268e-12  1.2811054480270499e-09  1.2824404358391461e+00  9.6512145173226940e-08  2.7555145596051820e+00  8.5871859285936393e-19  2.2251170793083247e-34  3.2302695765520522e-03  1.4722446385595940e-03  1.2881348584342284e-04  5.4429440104573044e-04  9.6908579860819093e-12  1.4713918572872191e-16  1.7252807281397111e-55  9.8281811410945804e-07  3.9925885169499856e-51  1.8759509438327723e-11  4.1777877691794305e-33  1.1568494192168846e-04  3.2152025044072832e-35  5.9316882954155362e-57  1.0576889847698371e-22  1.8981977068799023e-02  3.8466808449337052e-02  1.1964186354042845e-02  6.6359388729389534e-04  1.2771260704416623e-42  1.2288308045226388e-29  6.2970732017863391e-11  2.0732368227277770e-43  2.6786203797608533e-33  1.2817659495241838e-38  8.5424515533132856e-42  2.5518303415086532e-05  2.8503644056694956e-07  1.9241099451753364e-24  3.1479174656942460e-49  4.7517978715926073e-19  1.8810697052022029e-49  2.0801108509933969e-53  3.1733496444390202e-55  1.2445805092004174e-01  1.9561143368748600e-37  5.2377628177621298e-12  1.9534350135418541e-63  7.5411766231434336e-32  1.8115364235823507e-45  8.3179718344295432e-40  2.3684777407929385e-47  3.8546222551660923e-02  1.5047250952533051e-08  4.3035736236472147e-21  4.6362200693224840e-24  6.1190604910061018e-20  2.7194626613239754e-43  3.0022196101133267e-40  4.6183506555847319e-48  6.7902700842117714e-08  1.4233882716942335e-14  7.6244234249041033e-08  3.0133030212903991e-25  4.8224608047781281e-04  5.3415940200423706e-21  1.2346903182152270e-05  3.8321802187337399e-13  2.0843951837099980e-15  5.1465184533424444e-03  4.6148519345548024e-58  4.6488521785627017e-23  1.9327183145237984e-25  3.4462793505006220e-07  1.0992121200758023e-10  5.6735591422782503e-10  1.8209840440614548e-65  3.5089019196279461e+00  1.7805679036430658e-30  2.6225140560298106e-36  1.8536319712086805e-02  4.6887514783522653e-30  6.7397764730870139e-06  9.4562780011928062e-27  1.7775270431282274e-18  3.4025466483058474e-09  3.9456631314834766e-41  1.1908345239427317e-41  7.2511984391125432e-39  5.5521020622810851e-17  1.8579725044409162e-15  3.3408322235629023e-48  5.6296028492497732e-10  2.6151347838656916e-05  6.2737474370586225e-03  8.7885866696503265e-02  3.5240823268199428e-13  2.6404134143547142e-01  3.4408611862383650e-26  3.6102486593127884e-11  3.7592352920155399e-14  4.3628868982215380e-01  7.5782313101225979e-57  5.4295972262304725e-58  2.5652660676757873e-02  1.0363571657142943e-15  3.5457946464581928e-13  1.7210240299198645e+00  2.4532857433675983e-14  7.0603117584779222e-27  2.1829409004228381e-23  1.6338078874900964e-15  3.4622540832114604e-56  6.9647751525105664e-16  5.2774424624117278e-08  5.7987417538257250e-66  8.4212209999095821e-50  1.3249124199463552e-30  1.7302380265619276e-08  3.5221651144352060e-10  1.2124649886341085e-03  5.1716557575549498e-41  4.8372556128201221e-41  4.4762871409893285e-01  1.1181978847642442e-16  1.4302015143130361e-28  3.6028981461188655e-25  4.2653314676240844e-01  1.8516658762653431e-46  1.2018776598003640e+00  7.9185950010111954e-05  2.6369173323603928e-01  5.3126223714234666e-41  1.7059690959366695e-04  5.2022581188074274e-05  8.5551247913428416e-29  7.5195465178476132e-44  1.0216846712431408e-09  4.7899559093873617e-04  1.1500173786958018e-01  7.0928042954281360e-56  4.8956660018016008e-14  1.4059877090604861e-11  1.7705194151045415e-47  5.3781654473477172e-02  1.5686799094366040e-06  8.4562017900139759e-31  7.8226188495848330e-03  7.2843106790253027e-06  2.2586233990533115e-22  7.1064706002533163e-19  1.6447727794536623e-02  2.0608779654910583e-20  1.6069123196255685e-17  2.3821252151229313e-30  1.2637249299357342e-42  2.5454102663280358e-51  4.6278225222272065e-21  3.0136266860397123e-30  3.3311890207952607e-05  9.7796824082309894e-04  6.7114058754857951e-43  1.0440496994985307e+00  7.8020162357253986e-01  2.0342032704662215e-20  7.8012160674906810e-47  1.5060458907576173e-03  1.7114022941000921e-12  5.3510851943744835e-11  8.7771131969334868e-14  8.9075075216574773e-09  3.6458541174615558e-49  1.6679161612371608e-25  6.6785489052898102e-45  1.7018568230683302e-14  6.9026168334651634e-34  1.6774709518947787e-09  2.5796695389327115e-08  2.3762451358030868e-15  4.1867579810238840e-04  3.1960184873332289e-36  4.9625949603578452e-03  6.5912984129739054e-38  1.0563425014420632e-58  1.8379372377680680e-08  1.0703724724330058e-06  1.5581615940216060e-24  1.8916128257445179e-53  2.2212117091384542e-14  2.1961009138667070e-03  2.0051008734272174e-64  6.7010166488154523e-49  1.9065821093376229e-33  1.0741812584399341e-53  7.8807065854784271e-22  1.9301553788121825e-20  2.9460341123111448e-23  4.2226343082617692e-09  1.2278639903794242e-01  1.0882504180979491e-18  4.9395825611427095e-63  2.0337630621079404e-03  1.2207702686409338e-47  4.2597700732832921e-49  6.3588769869399101e-65  1.5150782586582011e-64  2.6779693903158773e-56  1.8709129707268521e-08  2.4983745857449769e-02  2.7551261442964582e-31  1.7099367130826119e-58  2.1300067370804667e-31  3.1250857857970161e-25  8.8533062327271847e-06  4.7897862566169183e-41  4.2300676212909066e-11  6.1582713258992413e-11  9.3672718032333180e-35  2.7612688958478316e-20  7.9735029997742303e-30  2.7652024430641976e-17  3.2453272174928265e-21  1.9893650476614358e-35  2.7051356221051116e-53  7.2381708335197084e-17  8.3255362772959297e-41  6.8355101744084313e-15  1.3471572864010359e-04  6.0539066660060659e-33  9.5640369424726356e-37  7.9334304465207369e-05  5.9244710358962590e-07  7.3712637213907164e-31  1.4058944611670572e+00  2.7952979712722281e+00  6.8331716923970533e-20  2.0285195740601516e-08  1.6155420012327938e-18  3.4727883710161853e-33  7.4332647096064424e-03  1.7043995144538547e-12  9.5589380582346932e-11  1.2800466325311478e-15  7.7904019702678243e-07  1.7828444745095742e-50  1.0278309188461526e-42  5.2773270379296684e-27  4.5217484994540597e-06  1.3940776283662588e-03  6.9211291590178339e-05  1.3056308005338107e-34  5.4580117035869880e-01  1.7552323022428939e-19  1.6789477952544349e-01  3.0187293489609843e-40  6.6319393392947582e-36  6.4241001340919137e-42  7.8177683482276883e-02  2.0455122143338845e-06  3.7757976292915708e-09  3.1497094260178413e-06  1.8445934223194379e-07  9.9544549050240986e-50  4.0209858250150200e-48  5.9635372638708545e-04  2.9174930569598177e-54  5.2664768119204388e-34  2.2583136377043323e-32  3.4968271038980919e-11  6.5026356019156199e-29  2.3448043099241845e-12  4.6198293506907085e-51  2.4181114676830229e-25  1.1505243633801077e-22  2.0990637279916685e-25  3.7304690611548953e-05  4.9935815559973026e-06  3.4493795427105812e-30  2.5178433129506197e-08  3.6981955573577544e-06  2.2541181132313377e-08  1.3818553949616602e-58  1.7235409016386864e-11  4.5451699428152404e-39  1.5330428982601441e-40  5.230847387448626